! TOUCHSTONE file generated by CST MICROWAVE STUDIO
! Date and time: Fri Dec  8 17:42:20 2023
! Project name: Sonda_v2.cst
! Parameters = {EConduct=0; Ep=1.00059; MagConduct=0; Mu=1}
! Header version: 2018
! Port assignment regex: !\s*Touchstone port\s*([0-9]+)\s*=\s*(CST MWS port|CST DS port)\s*([0-9]+|Zmin|Zmax)\s*\(\"(.*)\"\)(\s*mode\s*([0-9]+))?.*
! Touchstone port assignment:
! Touchstone port 1 = CST MWS port 1 ("")
# GHz S DB R 50
0.1                  -0.00331208         4.33848
0.1149               -0.00344572         4.29818
0.1298               -0.00358261         4.25775
0.1447               -0.00372278         4.21721
0.1596               -0.00386625         4.17655
0.1745               -0.00401305         4.13576
0.1894                -0.0041632         4.09486
0.2043               -0.00431675         4.05383
0.2192               -0.00447371         4.01268
0.2341               -0.00463411         3.97141
0.249                -0.00479799         3.93001
0.2639               -0.00496536          3.8885
0.2788               -0.00513627         3.84685
0.2937               -0.00531074         3.80509
0.3086               -0.00548879         3.76319
0.3235               -0.00567047         3.72118
0.3384               -0.00585579         3.67903
0.3533               -0.00604479         3.63676
0.3682               -0.00623751         3.59436
0.3831               -0.00643396         3.55183
0.398                -0.00663419         3.50918
0.4129               -0.00683822          3.4664
0.4278               -0.00704609         3.42348
0.4427               -0.00725782         3.38044
0.4576               -0.00747345         3.33726
0.4725               -0.00769302         3.29396
0.4874               -0.00791655         3.25052
0.5023               -0.00814409         3.20695
0.5172               -0.00837565         3.16325
0.5321               -0.00861128         3.11941
0.547                -0.00885101         3.07544
0.5619               -0.00909487         3.03133
0.5768                -0.0093429         2.98709
0.5917               -0.00959514         2.94272
0.6066               -0.00985161          2.8982
0.6215                -0.0101124         2.85355
0.6364                -0.0103774         2.80876
0.6513                -0.0106468         2.76384
0.6662                -0.0109206         2.71877
0.6811                -0.0111988         2.67357
0.696                 -0.0114815         2.62822
0.7109                -0.0117686         2.58273
0.7258                -0.0120603         2.53711
0.7407                -0.0123566         2.49134
0.7556                -0.0126574         2.44542
0.7705                -0.0129629         2.39937
0.7854                -0.0132731         2.35317
0.8003                -0.0135881         2.30682
0.8152                -0.0139077         2.26033
0.8301                -0.0142322          2.2137
0.845                 -0.0145616         2.16692
0.8599                -0.0148958         2.11999
0.8748                -0.0152349         2.07291
0.8897                 -0.015579         2.02568
0.9046                -0.0159282         1.97831
0.9195                -0.0162823         1.93078
0.9344                -0.0166416         1.88311
0.9493                 -0.017006         1.83528
0.9642                -0.0173756          1.7873
0.9791                -0.0177504         1.73917
0.994                 -0.0181305         1.69089
1.0089                -0.0185159         1.64245
1.0238                -0.0189067         1.59385
1.0387                -0.0193029         1.54511
1.0536                -0.0197045          1.4962
1.0685                -0.0201116         1.44714
1.0834                -0.0205242         1.39792
1.0983                -0.0209425         1.34854
1.1132                -0.0213663         1.29901
1.1281                -0.0217959         1.24931
1.143                 -0.0222312         1.19946
1.1579                -0.0226723         1.14944
1.1728                -0.0231192         1.09926
1.1877                 -0.023572         1.04892
1.2026                -0.0240307        0.998412
1.2175                -0.0244954        0.947743
1.2324                -0.0249661        0.896908
1.2473                -0.0254429        0.845908
1.2622                -0.0259259        0.794742
1.2771                 -0.026415        0.743409
1.292                 -0.0269104        0.691908
1.3069                 -0.027412        0.640237
1.3218                  -0.02792        0.588398
1.3367                -0.0284344        0.536388
1.3516                -0.0289553        0.484207
1.3665                -0.0294826        0.431854
1.3814                -0.0300166        0.379329
1.3963                -0.0305571         0.32663
1.4112                -0.0311044        0.273757
1.4261                -0.0316583        0.220709
1.441                 -0.0322191        0.167484
1.4559                -0.0327867        0.114083
1.4708                -0.0333612       0.0605048
1.4857                -0.0339427      0.00674781
1.5006                -0.0345312      -0.0471884
1.5155                -0.0351268       -0.101305
1.5304                -0.0357296       -0.155602
1.5453                -0.0363396       -0.210081
1.5602                -0.0369568       -0.264743
1.5751                -0.0375814       -0.319588
1.59                  -0.0382134       -0.374617
1.6049                -0.0388528       -0.429832
1.6198                -0.0394997       -0.485233
1.6347                -0.0401543       -0.540821
1.6496                -0.0408165       -0.596597
1.6645                -0.0414864       -0.652561
1.6794                -0.0421642       -0.708715
1.6943                -0.0428497        -0.76506
1.7092                -0.0435432       -0.821597
1.7241                -0.0442447       -0.878325
1.739                 -0.0449543       -0.935247
1.7539                 -0.045672       -0.992364
1.7688                -0.0463979        -1.04968
1.7837                -0.0471321        -1.10718
1.7986                -0.0478746        -1.16489
1.8135                -0.0486255        -1.22279
1.8284                -0.0493849        -1.28089
1.8433                -0.0501529        -1.33919
1.8582                -0.0509295         -1.3977
1.8731                -0.0517149         -1.4564
1.888                  -0.052509        -1.51531
1.9029                 -0.053312        -1.57442
1.9178                -0.0541239        -1.63374
1.9327                -0.0549449        -1.69326
1.9476                -0.0557749        -1.75299
1.9625                -0.0566142        -1.81292
1.9774                -0.0574627        -1.87307
1.9923                -0.0583205        -1.93342
2.0072                -0.0591878        -1.99399
2.0221                -0.0600645        -2.05477
2.037                 -0.0609509        -2.11576
2.0519                -0.0618469        -2.17696
2.0668                -0.0627527        -2.23838
2.0817                -0.0636683        -2.30002
2.0966                -0.0645939        -2.36187
2.1115                -0.0655294        -2.42394
2.1264                -0.0664751        -2.48623
2.1413                 -0.067431        -2.54874
2.1562                -0.0683971        -2.61147
2.1711                -0.0693736        -2.67443
2.186                 -0.0703606        -2.73761
2.2009                -0.0713582        -2.80101
2.2158                -0.0723664        -2.86464
2.2307                -0.0733853        -2.92849
2.2456                -0.0744151        -2.99258
2.2605                -0.0754558        -3.05689
2.2754                -0.0765075        -3.12143
2.2903                -0.0775704        -3.18621
2.3052                -0.0786444        -3.25122
2.3201                -0.0797299        -3.31646
2.335                 -0.0808267        -3.38193
2.3499                -0.0819351        -3.44765
2.3648                -0.0830551         -3.5136
2.3797                -0.0841868        -3.57978
2.3946                -0.0853304        -3.64621
2.4095                -0.0864859        -3.71288
2.4244                -0.0876535        -3.77979
2.4393                -0.0888332        -3.84695
2.4542                -0.0900252        -3.91435
2.4691                -0.0912295        -3.98199
2.484                 -0.0924464        -4.04988
2.4989                -0.0936758        -4.11802
2.5138                 -0.094918        -4.18641
2.5287                 -0.096173        -4.25505
2.5436                -0.0974409        -4.32395
2.5585                -0.0987219        -4.39309
2.5734                 -0.100016        -4.46249
2.5883                 -0.101323        -4.53215
2.6032                 -0.102644        -4.60206
2.6181                 -0.103979        -4.67224
2.633                  -0.105327        -4.74267
2.6479                 -0.106688        -4.81336
2.6628                 -0.108064        -4.88432
2.6777                 -0.109454        -4.95554
2.6926                 -0.110858        -5.02703
2.7075                 -0.112276        -5.09878
2.7224                 -0.113708         -5.1708
2.7373                 -0.115155        -5.24309
2.7522                 -0.116617        -5.31565
2.7671                 -0.118094        -5.38848
2.782                  -0.119585        -5.46158
2.7969                 -0.121092        -5.53496
2.8118                 -0.122613        -5.60862
2.8267                 -0.124151        -5.68255
2.8416                 -0.125703        -5.75677
2.8565                 -0.127271        -5.83126
2.8714                 -0.128855        -5.90604
2.8863                 -0.130455         -5.9811
2.9012                 -0.132071        -6.05644
2.9161                 -0.133703        -6.13208
2.931                  -0.135352        -6.20799
2.9459                 -0.137017         -6.2842
2.9608                 -0.138698         -6.3607
2.9757                 -0.140397         -6.4375
2.9906                 -0.142112        -6.51458
3.0055                 -0.143845        -6.59196
3.0204                 -0.145594        -6.66964
3.0353                 -0.147361        -6.74762
3.0502                 -0.149146         -6.8259
3.0651                 -0.150949        -6.90448
3.08                   -0.152769        -6.98336
3.0949                 -0.154608        -7.06255
3.1098                 -0.156464        -7.14205
3.1247                 -0.158339        -7.22185
3.1396                 -0.160233        -7.30196
3.1545                 -0.162145        -7.38239
3.1694                 -0.164077        -7.46312
3.1843                 -0.166027        -7.54417
3.1992                 -0.167997        -7.62554
3.2141                 -0.169986        -7.70723
3.229                  -0.171995        -7.78924
3.2439                 -0.174024        -7.87156
3.2588                 -0.176072        -7.95421
3.2737                 -0.178141        -8.03719
3.2886                  -0.18023        -8.12049
3.3035                  -0.18234        -8.20412
3.3184                  -0.18447        -8.28808
3.3333                 -0.186622        -8.37238
3.3482                 -0.188794          -8.457
3.3631                 -0.190988        -8.54196
3.378                  -0.193203        -8.62726
3.3929                 -0.195441         -8.7129
3.4078                   -0.1977        -8.79888
3.4227                 -0.199981         -8.8852
3.4376                 -0.202284        -8.97187
3.4525                  -0.20461        -9.05888
3.4674                 -0.206959        -9.14624
3.4823                 -0.209331        -9.23395
3.4972                 -0.211726        -9.32201
3.5121                 -0.214145        -9.41043
3.527                  -0.216587         -9.4992
3.5419                 -0.219053        -9.58833
3.5568                 -0.221543        -9.67782
3.5717                 -0.224057        -9.76767
3.5866                 -0.226596        -9.85788
3.6015                  -0.22916        -9.94846
3.6164                 -0.231748        -10.0394
3.6313                 -0.234362        -10.1307
3.6462                 -0.237002        -10.2224
3.6611                 -0.239667        -10.3145
3.676                  -0.242358        -10.4069
3.6909                 -0.245075        -10.4997
3.7058                 -0.247819        -10.5929
3.7207                 -0.250589        -10.6865
3.7356                 -0.253386        -10.7804
3.7505                 -0.256211        -10.8748
3.7654                 -0.259063        -10.9695
3.7803                 -0.261943        -11.0646
3.7952                 -0.264851        -11.1601
3.8101                 -0.267787        -11.2561
3.825                  -0.270751        -11.3524
3.8399                 -0.273745        -11.4491
3.8548                 -0.276767        -11.5462
3.8697                 -0.279819        -11.6437
3.8846                   -0.2829        -11.7416
3.8995                 -0.286012        -11.8399
3.9144                 -0.289154        -11.9386
3.9293                 -0.292326        -12.0378
3.9442                 -0.295529        -12.1373
3.9591                 -0.298763        -12.2373
3.974                  -0.302028        -12.3377
3.9889                 -0.305325        -12.4385
4.0038                 -0.308654        -12.5397
4.0187                 -0.312015        -12.6414
4.0336                 -0.315409        -12.7435
4.0485                 -0.318836         -12.846
4.0634                 -0.322296        -12.9489
4.0783                  -0.32579        -13.0523
4.0932                 -0.329318        -13.1561
4.1081                  -0.33288        -13.2604
4.123                  -0.336476        -13.3651
4.1379                 -0.340107        -13.4702
4.1528                 -0.343774        -13.5758
4.1677                 -0.347476        -13.6819
4.1826                 -0.351214        -13.7884
4.1975                 -0.354988        -13.8953
4.2124                 -0.358799        -14.0027
4.2273                 -0.362647        -14.1106
4.2422                 -0.366532        -14.2189
4.2571                 -0.370454        -14.3277
4.272                  -0.374415         -14.437
4.2869                 -0.378414        -14.5467
4.3018                 -0.382452        -14.6569
4.3167                  -0.38653        -14.7676
4.3316                 -0.390646        -14.8788
4.3465                 -0.394803        -14.9904
4.3614                    -0.399        -15.1025
4.3763                 -0.403238        -15.2151
4.3912                 -0.407517        -15.3282
4.4061                 -0.411837        -15.4418
4.421                    -0.4162        -15.5559
4.4359                 -0.420605        -15.6705
4.4508                 -0.425052        -15.7855
4.4657                 -0.429543        -15.9011
4.4806                 -0.434077        -16.0172
4.4955                 -0.438655        -16.1338
4.5104                 -0.443278        -16.2509
4.5253                 -0.447946        -16.3685
4.5402                 -0.452659        -16.4866
4.5551                 -0.457418        -16.6053
4.57                   -0.462223        -16.7245
4.5849                 -0.467075        -16.8442
4.5998                 -0.471974        -16.9644
4.6147                  -0.47692        -17.0851
4.6296                 -0.481915        -17.2064
4.6445                 -0.486958        -17.3283
4.6594                 -0.492051        -17.4506
4.6743                 -0.497193        -17.5736
4.6892                 -0.502385         -17.697
4.7041                 -0.507627         -17.821
4.719                  -0.512921        -17.9456
4.7339                 -0.518266        -18.0707
4.7488                 -0.523663        -18.1964
4.7637                 -0.529112        -18.3226
4.7786                 -0.534615        -18.4494
4.7935                 -0.540172        -18.5768
4.8084                 -0.545782        -18.7047
4.8233                 -0.551447        -18.8332
4.8382                 -0.557168        -18.9623
4.8531                 -0.562944         -19.092
4.868                  -0.568777        -19.2222
4.8829                 -0.574666        -19.3531
4.8978                 -0.580613        -19.4845
4.9127                 -0.586618        -19.6165
4.9276                 -0.592682        -19.7492
4.9425                 -0.598805        -19.8824
4.9574                 -0.604987        -20.0162
4.9723                 -0.611231        -20.1507
4.9872                 -0.617535        -20.2857
5.0021                   -0.6239        -20.4214
5.017                  -0.630328        -20.5577
5.0319                 -0.636819        -20.6946
5.0468                 -0.643374        -20.8321
5.0617                 -0.649992        -20.9702
5.0766                 -0.656675         -21.109
5.0915                 -0.663424        -21.2484
5.1064                 -0.670239        -21.3885
5.1213                  -0.67712        -21.5292
5.1362                 -0.684069        -21.6705
5.1511                 -0.691086        -21.8125
5.166                  -0.698172        -21.9552
5.1809                 -0.705327        -22.0985
5.1958                 -0.712552        -22.2425
5.2107                 -0.719848        -22.3871
5.2256                 -0.727216        -22.5324
5.2405                 -0.734657        -22.6784
5.2554                  -0.74217         -22.825
5.2703                 -0.749757        -22.9723
5.2852                 -0.757418        -23.1203
5.3001                 -0.765155         -23.269
5.315                  -0.772968        -23.4184
5.3299                 -0.780857        -23.5685
5.3448                 -0.788824        -23.7193
5.3597                  -0.79687        -23.8707
5.3746                 -0.804995        -24.0229
5.3895                 -0.813199        -24.1758
5.4044                 -0.821485        -24.3294
5.4193                 -0.829851        -24.4838
5.4342                 -0.838301        -24.6388
5.4491                 -0.846833        -24.7946
5.464                   -0.85545        -24.9511
5.4789                 -0.864152        -25.1083
5.4938                 -0.872939        -25.2663
5.5087                 -0.881813         -25.425
5.5236                 -0.890774        -25.5845
5.5385                 -0.899824        -25.7447
5.5534                 -0.908963        -25.9057
5.5683                 -0.918193        -26.0674
5.5832                 -0.927513        -26.2299
5.5981                 -0.936926        -26.3932
5.613                  -0.946431        -26.5572
5.6279                 -0.956031         -26.722
5.6428                 -0.965725        -26.8876
5.6577                 -0.975515         -27.054
5.6726                 -0.985402        -27.2211
5.6875                 -0.995387        -27.3891
5.7024                  -1.00547        -27.5578
5.7173                  -1.01565        -27.7274
5.7322                  -1.02594        -27.8977
5.7471                  -1.03632        -28.0689
5.762                   -1.04681        -28.2409
5.7769                  -1.05741        -28.4137
5.7918                   -1.0681        -28.5874
5.8067                  -1.07891        -28.7618
5.8216                  -1.08982        -28.9371
5.8365                  -1.10084        -29.1132
5.8514                  -1.11196        -29.2902
5.8663                   -1.1232         -29.468
5.8812                  -1.13455        -29.6467
5.8961                  -1.14601        -29.8262
5.911                   -1.15759        -30.0066
5.9259                  -1.16928        -30.1879
5.9408                  -1.18109          -30.37
5.9557                  -1.19301         -30.553
5.9706                  -1.20505        -30.7369
5.9855                  -1.21722        -30.9217
6.0004                   -1.2295        -31.1074
6.0153                   -1.2419        -31.2939
6.0302                  -1.25443        -31.4814
6.0451                  -1.26709        -31.6697
6.06                    -1.27986         -31.859
6.0749                  -1.29277        -32.0492
6.0898                   -1.3058        -32.2403
6.1047                  -1.31897        -32.4323
6.1196                  -1.33226        -32.6253
6.1345                  -1.34569        -32.8192
6.1494                  -1.35925         -33.014
6.1643                  -1.37294        -33.2098
6.1792                  -1.38677        -33.4065
6.1941                  -1.40074        -33.6042
6.209                   -1.41485        -33.8029
6.2239                   -1.4291        -34.0025
6.2388                  -1.44349        -34.2031
6.2537                  -1.45802        -34.4046
6.2686                   -1.4727        -34.6072
6.2835                  -1.48752        -34.8107
6.2984                   -1.5025        -35.0152
6.3133                  -1.51762        -35.2207
6.3282                  -1.53289        -35.4273
6.3431                  -1.54831        -35.6348
6.358                   -1.56389        -35.8433
6.3729                  -1.57962        -36.0529
6.3878                  -1.59551        -36.2635
6.4027                  -1.61156        -36.4751
6.4176                  -1.62776        -36.6878
6.4325                  -1.64413        -36.9015
6.4474                  -1.66066        -37.1162
6.4623                  -1.67736         -37.332
6.4772                  -1.69422        -37.5489
6.4921                  -1.71125        -37.7668
6.507                   -1.72845        -37.9858
6.5219                  -1.74582        -38.2059
6.5368                  -1.76336         -38.427
6.5517                  -1.78108        -38.6493
6.5666                  -1.79898        -38.8726
6.5815                  -1.81705         -39.097
6.5964                   -1.8353        -39.3226
6.6113                  -1.85374        -39.5492
6.6262                  -1.87235         -39.777
6.6411                  -1.89116        -40.0059
6.656                   -1.91015        -40.2359
6.6709                  -1.92933        -40.4671
6.6858                   -1.9487        -40.6994
6.7007                  -1.96826        -40.9329
6.7156                  -1.98801        -41.1675
6.7305                  -2.00797        -41.4033
6.7454                  -2.02812        -41.6402
6.7603                  -2.04847        -41.8783
6.7752                  -2.06902        -42.1176
6.7901                  -2.08978        -42.3581
6.805                   -2.11075        -42.5998
6.8199                  -2.13192        -42.8427
6.8348                   -2.1533        -43.0868
6.8497                   -2.1749        -43.3321
6.8646                   -2.1967        -43.5787
6.8795                  -2.21873        -43.8264
6.8944                  -2.24097        -44.0754
6.9093                  -2.26344        -44.3257
6.9242                  -2.28612        -44.5772
6.9391                  -2.30903        -44.8299
6.954                   -2.33217         -45.084
6.9689                  -2.35554        -45.3392
6.9838                  -2.37914        -45.5958
6.9987                  -2.40297        -45.8537
7.0136                  -2.42703        -46.1128
7.0285                  -2.45134        -46.3733
7.0434                  -2.47588        -46.6351
7.0583                  -2.50067        -46.8981
7.0732                   -2.5257        -47.1626
7.0881                  -2.55098        -47.4283
7.103                   -2.57651        -47.6954
7.1179                  -2.60229        -47.9638
7.1328                  -2.62833        -48.2336
7.1477                  -2.65462        -48.5048
7.1626                  -2.68116        -48.7773
7.1775                  -2.70797        -49.0512
7.1924                  -2.73505        -49.3265
7.2073                  -2.76239        -49.6033
7.2222                     -2.79        -49.8814
7.2371                  -2.81788        -50.1609
7.252                   -2.84603        -50.4419
7.2669                  -2.87446        -50.7243
7.2818                  -2.90317        -51.0081
7.2967                  -2.93215        -51.2934
7.3116                  -2.96143        -51.5802
7.3265                  -2.99098        -51.8685
7.3414                  -3.02083        -52.1582
7.3563                  -3.05097        -52.4494
7.3712                   -3.0814        -52.7422
7.3861                  -3.11213        -53.0364
7.401                   -3.14316        -53.3322
7.4159                  -3.17449        -53.6295
7.4308                  -3.20613        -53.9283
7.4457                  -3.23807        -54.2288
7.4606                  -3.27033        -54.5308
7.4755                  -3.30289        -54.8343
7.4904                  -3.33578        -55.1395
7.5053                  -3.36898        -55.4463
7.5202                   -3.4025        -55.7546
7.5351                  -3.43635        -56.0646
7.55                    -3.47052        -56.3763
7.5649                  -3.50502        -56.6896
7.5798                  -3.53986        -57.0046
7.5947                  -3.57503        -57.3212
7.6096                  -3.61054        -57.6396
7.6245                   -3.6464        -57.9596
7.6394                  -3.68259        -58.2814
7.6543                  -3.71914        -58.6049
7.6692                  -3.75603        -58.9302
7.6841                  -3.79328        -59.2572
7.699                   -3.83088         -59.586
7.7139                  -3.86885        -59.9166
7.7288                  -3.90717        -60.2491
7.7437                  -3.94586        -60.5833
7.7586                  -3.98492        -60.9194
7.7735                  -4.02436        -61.2573
7.7884                  -4.06416        -61.5972
7.8033                  -4.10434        -61.9389
7.8182                  -4.14491        -62.2825
7.8331                  -4.18586        -62.6281
7.848                   -4.22719        -62.9756
7.8629                  -4.26891        -63.3251
7.8778                  -4.31103        -63.6766
7.8927                  -4.35355          -64.03
7.9076                  -4.39646        -64.3856
7.9225                  -4.43978        -64.7431
7.9374                   -4.4835        -65.1028
7.9523                  -4.52763        -65.4645
7.9672                  -4.57217        -65.8283
7.9821                  -4.61713        -66.1943
7.997                   -4.66251        -66.5625
8.0119                   -4.7083        -66.9328
8.0268                  -4.75453        -67.3054
8.0417                  -4.80118        -67.6802
8.0566                  -4.84826        -68.0572
8.0715                  -4.89578        -68.4366
8.0864                  -4.94373        -68.8182
8.1013                  -4.99213        -69.2023
8.1162                  -5.04097        -69.5887
8.1311                  -5.09025        -69.9775
8.146                   -5.13999        -70.3687
8.1609                  -5.19018        -70.7624
8.1758                  -5.24082        -71.1586
8.1907                  -5.29193        -71.5573
8.2056                   -5.3435        -71.9586
8.2205                  -5.39553        -72.3625
8.2354                  -5.44803        -72.7691
8.2503                  -5.50101        -73.1783
8.2652                  -5.55446        -73.5902
8.2801                  -5.60839        -74.0049
8.295                    -5.6628        -74.4223
8.3099                  -5.71769        -74.8426
8.3248                  -5.77307        -75.2658
8.3397                  -5.82894        -75.6919
8.3546                   -5.8853        -76.1209
8.3695                  -5.94215         -76.553
8.3844                  -5.99951         -76.988
8.3993                  -6.05736        -77.4262
8.4142                  -6.11572        -77.8676
8.4291                  -6.17459        -78.3121
8.444                   -6.23396        -78.7599
8.4589                  -6.29384         -79.211
8.4738                  -6.35424        -79.6654
8.4887                  -6.41515        -80.1232
8.5036                  -6.47658        -80.5846
8.5185                  -6.53853        -81.0494
8.5334                    -6.601        -81.5179
8.5483                  -6.66399          -81.99
8.5632                  -6.72751        -82.4658
8.5781                  -6.79156        -82.9454
8.593                   -6.85613        -83.4288
8.6079                  -6.92124        -83.9162
8.6228                  -6.98687        -84.4075
8.6377                  -7.05304         -84.903
8.6526                  -7.11974        -85.4025
8.6675                  -7.18697        -85.9063
8.6824                  -7.25474        -86.4144
8.6973                  -7.32305        -86.9269
8.7122                  -7.39188        -87.4438
8.7271                  -7.46126        -87.9653
8.742                   -7.53117        -88.4914
8.7569                  -7.60161        -89.0223
8.7718                  -7.67258         -89.558
8.7867                  -7.74409        -90.0986
8.8016                  -7.81613        -90.6442
8.8165                   -7.8887        -91.1949
8.8314                  -7.96179        -91.7509
8.8463                  -8.03541        -92.3122
8.8612                  -8.10955        -92.8789
8.8761                  -8.18421        -93.4512
8.891                   -8.25938        -94.0291
8.9059                  -8.33507        -94.6128
8.9208                  -8.41126        -95.2025
8.9357                  -8.48796        -95.7981
8.9506                  -8.56515        -96.3999
8.9655                  -8.64283         -97.008
8.9804                  -8.72099        -97.6225
8.9953                  -8.79963        -98.2435
9.0102                  -8.87874        -98.8712
9.0251                   -8.9583        -99.5057
9.04                    -9.03832        -100.147
9.0549                  -9.11878        -100.796
9.0698                  -9.19967        -101.452