! TOUCHSTONE file generated by CST MICROWAVE STUDIO
! Date and time: Fri Dec  8 17:41:45 2023
! Project name: Sonda_v2.cst
! Parameters = {EConduct=0; Ep=1.00059; MagConduct=0; Mu=1}
! Header version: 2018
! Port assignment regex: !\s*Touchstone port\s*([0-9]+)\s*=\s*(CST MWS port|CST DS port)\s*([0-9]+|Zmin|Zmax)\s*\(\"(.*)\"\)(\s*mode\s*([0-9]+))?.*
! Touchstone port assignment:
! Touchstone port 1 = CST MWS port 1 ("")
# GHz S MA R 50
0.1                     0.999619         4.33848
0.1149                  0.999603         4.29818
0.1298                  0.999588         4.25775
0.1447                  0.999571         4.21721
0.1596                  0.999555         4.17655
0.1745                  0.999538         4.13576
0.1894                  0.999521         4.09486
0.2043                  0.999503         4.05383
0.2192                  0.999485         4.01268
0.2341                  0.999467         3.97141
0.249                   0.999448         3.93001
0.2639                  0.999429          3.8885
0.2788                  0.999409         3.84685
0.2937                  0.999389         3.80509
0.3086                  0.999368         3.76319
0.3235                  0.999347         3.72118
0.3384                  0.999326         3.67903
0.3533                  0.999304         3.63676
0.3682                  0.999282         3.59436
0.3831                   0.99926         3.55183
0.398                   0.999237         3.50918
0.4129                  0.999213          3.4664
0.4278                  0.999189         3.42348
0.4427                  0.999165         3.38044
0.4576                   0.99914         3.33726
0.4725                  0.999115         3.29396
0.4874                  0.999089         3.25052
0.5023                  0.999063         3.20695
0.5172                  0.999036         3.16325
0.5321                  0.999009         3.11941
0.547                   0.998982         3.07544
0.5619                  0.998953         3.03133
0.5768                  0.998925         2.98709
0.5917                  0.998896         2.94272
0.6066                  0.998866          2.8982
0.6215                  0.998836         2.85355
0.6364                  0.998806         2.80876
0.6513                  0.998775         2.76384
0.6662                  0.998744         2.71877
0.6811                  0.998712         2.67357
0.696                   0.998679         2.62822
0.7109                  0.998646         2.58273
0.7258                  0.998612         2.53711
0.7407                  0.998578         2.49134
0.7556                  0.998544         2.44542
0.7705                  0.998509         2.39937
0.7854                  0.998473         2.35317
0.8003                  0.998437         2.30682
0.8152                    0.9984         2.26033
0.8301                  0.998363          2.2137
0.845                   0.998325         2.16692
0.8599                  0.998287         2.11999
0.8748                  0.998248         2.07291
0.8897                  0.998208         2.02568
0.9046                  0.998168         1.97831
0.9195                  0.998127         1.93078
0.9344                  0.998086         1.88311
0.9493                  0.998044         1.83528
0.9642                  0.998002          1.7873
0.9791                  0.997958         1.73917
0.994                   0.997915         1.69089
1.0089                  0.997871         1.64245
1.0238                  0.997826         1.59385
1.0387                   0.99778         1.54511
1.0536                  0.997734          1.4962
1.0685                  0.997687         1.44714
1.0834                   0.99764         1.39792
1.0983                  0.997592         1.34854
1.1132                  0.997543         1.29901
1.1281                  0.997494         1.24931
1.143                   0.997444         1.19946
1.1579                  0.997393         1.14944
1.1728                  0.997342         1.09926
1.1877                   0.99729         1.04892
1.2026                  0.997237        0.998412
1.2175                  0.997184        0.947743
1.2324                   0.99713        0.896908
1.2473                  0.997075        0.845908
1.2622                   0.99702        0.794742
1.2771                  0.996963        0.743409
1.292                   0.996907        0.691908
1.3069                  0.996849        0.640237
1.3218                  0.996791        0.588398
1.3367                  0.996732        0.536388
1.3516                  0.996672        0.484207
1.3665                  0.996611        0.431854
1.3814                   0.99655        0.379329
1.3963                  0.996488         0.32663
1.4112                  0.996425        0.273757
1.4261                  0.996362        0.220709
1.441                   0.996298        0.167484
1.4559                  0.996232        0.114083
1.4708                  0.996167       0.0605048
1.4857                    0.9961      0.00674781
1.5006                  0.996032      -0.0471884
1.5155                  0.995964       -0.101305
1.5304                  0.995895       -0.155602
1.5453                  0.995825       -0.210081
1.5602                  0.995754       -0.264743
1.5751                  0.995683       -0.319588
1.59                     0.99561       -0.374617
1.6049                  0.995537       -0.429832
1.6198                  0.995463       -0.485233
1.6347                  0.995388       -0.540821
1.6496                  0.995312       -0.596597
1.6645                  0.995235       -0.652561
1.6794                  0.995157       -0.708715
1.6943                  0.995079        -0.76506
1.7092                  0.994999       -0.821597
1.7241                  0.994919       -0.878325
1.739                   0.994838       -0.935247
1.7539                  0.994756       -0.992364
1.7688                  0.994672        -1.04968
1.7837                  0.994588        -1.10718
1.7986                  0.994503        -1.16489
1.8135                  0.994417        -1.22279
1.8284                   0.99433        -1.28089
1.8433                  0.994243        -1.33919
1.8582                  0.994154         -1.3977
1.8731                  0.994064         -1.4564
1.888                   0.993973        -1.51531
1.9029                  0.993881        -1.57442
1.9178                  0.993788        -1.63374
1.9327                  0.993694        -1.69326
1.9476                  0.993599        -1.75299
1.9625                  0.993503        -1.81292
1.9774                  0.993406        -1.87307
1.9923                  0.993308        -1.93342
2.0072                  0.993209        -1.99399
2.0221                  0.993109        -2.05477
2.037                   0.993007        -2.11576
2.0519                  0.992905        -2.17696
2.0668                  0.992801        -2.23838
2.0817                  0.992697        -2.30002
2.0966                  0.992591        -2.36187
2.1115                  0.992484        -2.42394
2.1264                  0.992376        -2.48623
2.1413                  0.992267        -2.54874
2.1562                  0.992156        -2.61147
2.1711                  0.992045        -2.67443
2.186                   0.991932        -2.73761
2.2009                  0.991818        -2.80101
2.2158                  0.991703        -2.86464
2.2307                  0.991587        -2.92849
2.2456                  0.991469        -2.99258
2.2605                   0.99135        -3.05689
2.2754                   0.99123        -3.12143
2.2903                  0.991109        -3.18621
2.3052                  0.990987        -3.25122
2.3201                  0.990863        -3.31646
2.335                   0.990738        -3.38193
2.3499                  0.990611        -3.44765
2.3648                  0.990484         -3.5136
2.3797                  0.990354        -3.57978
2.3946                  0.990224        -3.64621
2.4095                  0.990092        -3.71288
2.4244                  0.989959        -3.77979
2.4393                  0.989825        -3.84695
2.4542                  0.989689        -3.91435
2.4691                  0.989552        -3.98199
2.484                   0.989413        -4.04988
2.4989                  0.989273        -4.11802
2.5138                  0.989132        -4.18641
2.5287                  0.988989        -4.25505
2.5436                  0.988844        -4.32395
2.5585                  0.988699        -4.39309
2.5734                  0.988551        -4.46249
2.5883                  0.988402        -4.53215
2.6032                  0.988252        -4.60206
2.6181                    0.9881        -4.67224
2.633                   0.987947        -4.74267
2.6479                  0.987792        -4.81336
2.6628                  0.987636        -4.88432
2.6777                  0.987478        -4.95554
2.6926                  0.987318        -5.02703
2.7075                  0.987157        -5.09878
2.7224                  0.986994         -5.1708
2.7373                   0.98683        -5.24309
2.7522                  0.986664        -5.31565
2.7671                  0.986496        -5.38848
2.782                   0.986327        -5.46158
2.7969                  0.986156        -5.53496
2.8118                  0.985983        -5.60862
2.8267                  0.985808        -5.68255
2.8416                  0.985632        -5.75677
2.8565                  0.985454        -5.83126
2.8714                  0.985274        -5.90604
2.8863                  0.985093         -5.9811
2.9012                   0.98491        -6.05644
2.9161                  0.984725        -6.13208
2.931                   0.984538        -6.20799
2.9459                  0.984349         -6.2842
2.9608                  0.984159         -6.3607
2.9757                  0.983966         -6.4375
2.9906                  0.983772        -6.51458
3.0055                  0.983576        -6.59196
3.0204                  0.983378        -6.66964
3.0353                  0.983177        -6.74762
3.0502                  0.982975         -6.8259
3.0651                  0.982772        -6.90448
3.08                    0.982566        -6.98336
3.0949                  0.982358        -7.06255
3.1098                  0.982148        -7.14205
3.1247                  0.981936        -7.22185
3.1396                  0.981722        -7.30196
3.1545                  0.981505        -7.38239
3.1694                  0.981287        -7.46312
3.1843                  0.981067        -7.54417
3.1992                  0.980844        -7.62554
3.2141                   0.98062        -7.70723
3.229                   0.980393        -7.78924
3.2439                  0.980164        -7.87156
3.2588                  0.979933        -7.95421
3.2737                    0.9797        -8.03719
3.2886                  0.979464        -8.12049
3.3035                  0.979226        -8.20412
3.3184                  0.978986        -8.28808
3.3333                  0.978744        -8.37238
3.3482                  0.978499          -8.457
3.3631                  0.978252        -8.54196
3.378                   0.978002        -8.62726
3.3929                   0.97775         -8.7129
3.4078                  0.977496        -8.79888
3.4227                  0.977239         -8.8852
3.4376                   0.97698        -8.97187
3.4525                  0.976719        -9.05888
3.4674                  0.976455        -9.14624
3.4823                  0.976188        -9.23395
3.4972                  0.975919        -9.32201
3.5121                  0.975647        -9.41043
3.527                   0.975373         -9.4992
3.5419                  0.975096        -9.58833
3.5568                  0.974816        -9.67782
3.5717                  0.974534        -9.76767
3.5866                   0.97425        -9.85788
3.6015                  0.973962        -9.94846
3.6164                  0.973672        -10.0394
3.6313                  0.973379        -10.1307
3.6462                  0.973083        -10.2224
3.6611                  0.972785        -10.3145
3.676                   0.972483        -10.4069
3.6909                  0.972179        -10.4997
3.7058                  0.971872        -10.5929
3.7207                  0.971562        -10.6865
3.7356                  0.971249        -10.7804
3.7505                  0.970933        -10.8748
3.7654                  0.970615        -10.9695
3.7803                  0.970293        -11.0646
3.7952                  0.969968        -11.1601
3.8101                   0.96964        -11.2561
3.825                   0.969309        -11.3524
3.8399                  0.968975        -11.4491
3.8548                  0.968638        -11.5462
3.8697                  0.968298        -11.6437
3.8846                  0.967955        -11.7416
3.8995                  0.967608        -11.8399
3.9144                  0.967258        -11.9386
3.9293                  0.966905        -12.0378
3.9442                  0.966548        -12.1373
3.9591                  0.966189        -12.2373
3.974                   0.965825        -12.3377
3.9889                  0.965459        -12.4385
4.0038                  0.965089        -12.5397
4.0187                  0.964715        -12.6414
4.0336                  0.964339        -12.7435
4.0485                  0.963958         -12.846
4.0634                  0.963574        -12.9489
4.0783                  0.963187        -13.0523
4.0932                  0.962796        -13.1561
4.1081                  0.962401        -13.2604
4.123                   0.962002        -13.3651
4.1379                    0.9616        -13.4702
4.1528                  0.961195        -13.5758
4.1677                  0.960785        -13.6819
4.1826                  0.960372        -13.7884
4.1975                  0.959954        -13.8953
4.2124                  0.959533        -14.0027
4.2273                  0.959108        -14.1106
4.2422                  0.958679        -14.2189
4.2571                  0.958247        -14.3277
4.272                    0.95781         -14.437
4.2869                  0.957369        -14.5467
4.3018                  0.956924        -14.6569
4.3167                  0.956475        -14.7676
4.3316                  0.956022        -14.8788
4.3465                  0.955564        -14.9904
4.3614                  0.955103        -15.1025
4.3763                  0.954637        -15.2151
4.3912                  0.954166        -15.3282
4.4061                  0.953692        -15.4418
4.421                   0.953213        -15.5559
4.4359                   0.95273        -15.6705
4.4508                  0.952242        -15.7855
4.4657                   0.95175        -15.9011
4.4806                  0.951253        -16.0172
4.4955                  0.950752        -16.1338
4.5104                  0.950246        -16.2509
4.5253                  0.949736        -16.3685
4.5402                   0.94922        -16.4866
4.5551                    0.9487        -16.6053
4.57                    0.948176        -16.7245
4.5849                  0.947646        -16.8442
4.5998                  0.947112        -16.9644
4.6147                  0.946573        -17.0851
4.6296                  0.946029        -17.2064
4.6445                  0.945479        -17.3283
4.6594                  0.944925        -17.4506
4.6743                  0.944366        -17.5736
4.6892                  0.943802         -17.697
4.7041                  0.943232         -17.821
4.719                   0.942658        -17.9456
4.7339                  0.942078        -18.0707
4.7488                  0.941493        -18.1964
4.7637                  0.940902        -18.3226
4.7786                  0.940306        -18.4494
4.7935                  0.939705        -18.5768
4.8084                  0.939098        -18.7047
4.8233                  0.938486        -18.8332
4.8382                  0.937868        -18.9623
4.8531                  0.937244         -19.092
4.868                   0.936615        -19.2222
4.8829                   0.93598        -19.3531
4.8978                   0.93534        -19.4845
4.9127                  0.934693        -19.6165
4.9276                  0.934041        -19.7492
4.9425                  0.933383        -19.8824
4.9574                  0.932719        -20.0162
4.9723                  0.932048        -20.1507
4.9872                  0.931372        -20.2857
5.0021                   0.93069        -20.4214
5.017                   0.930001        -20.5577
5.0319                  0.929307        -20.6946
5.0468                  0.928606        -20.8321
5.0617                  0.927898        -20.9702
5.0766                  0.927185         -21.109
5.0915                  0.926465        -21.2484
5.1064                  0.925738        -21.3885
5.1213                  0.925005        -21.5292
5.1362                  0.924265        -21.6705
5.1511                  0.923519        -21.8125
5.166                   0.922766        -21.9552
5.1809                  0.922006        -22.0985
5.1958                  0.921239        -22.2425
5.2107                  0.920466        -22.3871
5.2256                  0.919685        -22.5324
5.2405                  0.918898        -22.6784
5.2554                  0.918103         -22.825
5.2703                  0.917302        -22.9723
5.2852                  0.916493        -23.1203
5.3001                  0.915677         -23.269
5.315                   0.914854        -23.4184
5.3299                  0.914023        -23.5685
5.3448                  0.913185        -23.7193
5.3597                   0.91234        -23.8707
5.3746                  0.911487        -24.0229
5.3895                  0.910626        -24.1758
5.4044                  0.909758        -24.3294
5.4193                  0.908882        -24.4838
5.4342                  0.907998        -24.6388
5.4491                  0.907107        -24.7946
5.464                   0.906207        -24.9511
5.4789                    0.9053        -25.1083
5.4938                  0.904384        -25.2663
5.5087                  0.903461         -25.425
5.5236                  0.902529        -25.5845
5.5385                  0.901589        -25.7447
5.5534                  0.900641        -25.9057
5.5683                  0.899685        -26.0674
5.5832                   0.89872        -26.2299
5.5981                  0.897746        -26.3932
5.613                   0.896765        -26.5572
5.6279                  0.895774         -26.722
5.6428                  0.894775        -26.8876
5.6577                  0.893767         -27.054
5.6726                   0.89275        -27.2211
5.6875                  0.891724        -27.3891
5.7024                   0.89069        -27.5578
5.7173                  0.889646        -27.7274
5.7322                  0.888593        -27.8977
5.7471                  0.887532        -28.0689
5.762                    0.88646        -28.2409
5.7769                   0.88538        -28.4137
5.7918                   0.88429        -28.5874
5.8067                  0.883191        -28.7618
5.8216                  0.882082        -28.9371
5.8365                  0.880964        -29.1132
5.8514                  0.879836        -29.2902
5.8663                  0.878699         -29.468
5.8812                  0.877551        -29.6467
5.8961                  0.876394        -29.8262
5.911                   0.875227        -30.0066
5.9259                  0.874049        -30.1879
5.9408                  0.872862          -30.37
5.9557                  0.871665         -30.553
5.9706                  0.870457        -30.7369
5.9855                  0.869239        -30.9217
6.0004                  0.868011        -31.1074
6.0153                  0.866772        -31.2939
6.0302                  0.865522        -31.4814
6.0451                  0.864263        -31.6697
6.06                    0.862992         -31.859
6.0749                  0.861711        -32.0492
6.0898                  0.860419        -32.2403
6.1047                  0.859116        -32.4323
6.1196                  0.857802        -32.6253
6.1345                  0.856477        -32.8192
6.1494                  0.855141         -33.014
6.1643                  0.853794        -33.2098
6.1792                  0.852435        -33.4065
6.1941                  0.851065        -33.6042
6.209                   0.849684        -33.8029
6.2239                  0.848291        -34.0025
6.2388                  0.846887        -34.2031
6.2537                  0.845471        -34.4046
6.2686                  0.844044        -34.6072
6.2835                  0.842604        -34.8107
6.2984                  0.841153        -35.0152
6.3133                   0.83969        -35.2207
6.3282                  0.838215        -35.4273
6.3431                  0.836728        -35.6348
6.358                   0.835229        -35.8433
6.3729                  0.833718        -36.0529
6.3878                  0.832194        -36.2635
6.4027                  0.830658        -36.4751
6.4176                  0.829109        -36.6878
6.4325                  0.827548        -36.9015
6.4474                  0.825975        -37.1162
6.4623                  0.824389         -37.332
6.4772                   0.82279        -37.5489
6.4921                  0.821178        -37.7668
6.507                   0.819554        -37.9858
6.5219                  0.817917        -38.2059
6.5368                  0.816266         -38.427
6.5517                  0.814603        -38.6493
6.5666                  0.812926        -38.8726
6.5815                  0.811237         -39.097
6.5964                  0.809534        -39.3226
6.6113                  0.807817        -39.5492
6.6262                  0.806088         -39.777
6.6411                  0.804345        -40.0059
6.656                   0.802588        -40.2359
6.6709                  0.800818        -40.4671
6.6858                  0.799034        -40.6994
6.7007                  0.797236        -40.9329
6.7156                  0.795425        -41.1675
6.7305                    0.7936        -41.4033
6.7454                  0.791761        -41.6402
6.7603                  0.789908        -41.8783
6.7752                  0.788041        -42.1176
6.7901                   0.78616        -42.3581
6.805                   0.784265        -42.5998
6.8199                  0.782355        -42.8427
6.8348                  0.780432        -43.0868
6.8497                  0.778494        -43.3321
6.8646                  0.776542        -43.5787
6.8795                  0.774575        -43.8264
6.8944                  0.772594        -44.0754
6.9093                  0.770599        -44.3257
6.9242                  0.768589        -44.5772
6.9391                  0.766564        -44.8299
6.954                   0.764525         -45.084
6.9689                  0.762471        -45.3392
6.9838                  0.760402        -45.5958
6.9987                  0.758318        -45.8537
7.0136                   0.75622        -46.1128
7.0285                  0.754107        -46.3733
7.0434                  0.751979        -46.6351
7.0583                  0.749836        -46.8981
7.0732                  0.747678        -47.1626
7.0881                  0.745506        -47.4283
7.103                   0.743318        -47.6954
7.1179                  0.741115        -47.9638
7.1328                  0.738897        -48.2336
7.1477                  0.736664        -48.5048
7.1626                  0.734415        -48.7773
7.1775                  0.732152        -49.0512
7.1924                  0.729873        -49.3265
7.2073                   0.72758        -49.6033
7.2222                  0.725271        -49.8814
7.2371                  0.722947        -50.1609
7.252                   0.720607        -50.4419
7.2669                  0.718252        -50.7243
7.2818                  0.715882        -51.0081
7.2967                  0.713497        -51.2934
7.3116                  0.711097        -51.5802
7.3265                  0.708681        -51.8685
7.3414                   0.70625        -52.1582
7.3563                  0.703804        -52.4494
7.3712                  0.701342        -52.7422
7.3861                  0.698865        -53.0364
7.401                   0.696373        -53.3322
7.4159                  0.693866        -53.6295
7.4308                  0.691343        -53.9283
7.4457                  0.688805        -54.2288
7.4606                  0.686252        -54.5308
7.4755                  0.683684        -54.8343
7.4904                  0.681101        -55.1395
7.5053                  0.678502        -55.4463
7.5202                  0.675888        -55.7546
7.5351                   0.67326        -56.0646
7.55                    0.670616        -56.3763
7.5649                  0.667957        -56.6896
7.5798                  0.665284        -57.0046
7.5947                  0.662595        -57.3212
7.6096                  0.659892        -57.6396
7.6245                  0.657174        -57.9596
7.6394                  0.654441        -58.2814
7.6543                  0.651693        -58.6049
7.6692                  0.648931        -58.9302
7.6841                  0.646154        -59.2572
7.699                   0.643363         -59.586
7.7139                  0.640557        -59.9166
7.7288                  0.637737        -60.2491
7.7437                  0.634902        -60.5833
7.7586                  0.632053        -60.9194
7.7735                  0.629191        -61.2573
7.7884                  0.626314        -61.5972
7.8033                  0.623423        -61.9389
7.8182                  0.620518        -62.2825
7.8331                    0.6176        -62.6281
7.848                   0.614668        -62.9756
7.8629                  0.611722        -63.3251
7.8778                  0.608763        -63.6766
7.8927                  0.605791          -64.03
7.9076                  0.602805        -64.3856
7.9225                  0.599807        -64.7431
7.9374                  0.596795        -65.1028
7.9523                   0.59377        -65.4645
7.9672                  0.590733        -65.8283
7.9821                  0.587683        -66.1943
7.997                   0.584621        -66.5625
8.0119                  0.581547        -66.9328
8.0268                   0.57846        -67.3054
8.0417                  0.575362        -67.6802
8.0566                  0.572251        -68.0572
8.0715                   0.56913        -68.4366
8.0864                  0.565996        -68.8182
8.1013                  0.562851        -69.2023
8.1162                  0.559695        -69.5887
8.1311                  0.556528        -69.9775
8.146                   0.553351        -70.3687
8.1609                  0.550163        -70.7624
8.1758                  0.546964        -71.1586
8.1907                  0.543755        -71.5573
8.2056                  0.540537        -71.9586
8.2205                  0.537308        -72.3625
8.2354                   0.53407        -72.7691
8.2503                  0.530823        -73.1783
8.2652                  0.527566        -73.5902
8.2801                  0.524301        -74.0049
8.295                   0.521027        -74.4223
8.3099                  0.517745        -74.8426
8.3248                  0.514454        -75.2658
8.3397                  0.511156        -75.6919
8.3546                   0.50785        -76.1209
8.3695                  0.504536         -76.553
8.3844                  0.501216         -76.988
8.3993                  0.497888        -77.4262
8.4142                  0.494554        -77.8676
8.4291                  0.491214        -78.3121
8.444                   0.487868        -78.7599
8.4589                  0.484516         -79.211
8.4738                  0.481158        -79.6654
8.4887                  0.477796        -80.1232
8.5036                  0.474429        -80.5846
8.5185                  0.471057        -81.0494
8.5334                  0.467681        -81.5179
8.5483                  0.464302          -81.99
8.5632                  0.460919        -82.4658
8.5781                  0.457533        -82.9454
8.593                   0.454144        -83.4288
8.6079                  0.450753        -83.9162
8.6228                  0.447359        -84.4075
8.6377                  0.443964         -84.903
8.6526                  0.440568        -85.4025
8.6675                  0.437171        -85.9063
8.6824                  0.433773        -86.4144
8.6973                  0.430376        -86.9269
8.7122                  0.426978        -87.4438
8.7271                  0.423582        -87.9653
8.742                   0.420186        -88.4914
8.7569                  0.416792        -89.0223
8.7718                    0.4134         -89.558
8.7867                  0.410011        -90.0986
8.8016                  0.406625        -90.6442
8.8165                  0.403241        -91.1949
8.8314                  0.399862        -91.7509
8.8463                  0.396488        -92.3122
8.8612                  0.393118        -92.8789
8.8761                  0.389753        -93.4512
8.891                   0.386394        -94.0291
8.9059                  0.383042        -94.6128
8.9208                  0.379697        -95.2025
8.9357                  0.376359        -95.7981
8.9506                  0.373029        -96.3999
8.9655                  0.369708         -97.008
8.9804                  0.366396        -97.6225
8.9953                  0.363094        -98.2435
9.0102                  0.359802        -98.8712
9.0251                  0.356521        -99.5057
9.04                    0.353251        -100.147
9.0549                  0.349994        -100.796
9.0698                   0.34675        -101.452